{
  "facilityId": 1000104081,
  "epaFacId": "100000250079",
  "facNm": "Flashpoint Energy Partners Union Terminal",
  "parntCo1Nm": "",
  "facDunsNu": 117436356,
  "sbmsnTypeCd": "F",
  "facStreet1Tx": "501 Independence Drive",
  "facStreet2Tx": "",
  "facCityNm": "Union",
  "facStateCd": "MO",
  "countyNm": " FRANKLIN",
  "facZipCd": "63084",
  "facZip4Cd": "",
  "receiptDa": "2023-01-25T00:00:00.000",
  "facLatDecMs": "38.4578305",
  "facLongDecMs": "-91.0239191",
  "lepcNm": "Franklin County LEPC",
  "oshaPsmCd": "Y",
  "epcra302Cd": "Y",
  "caaTitleVCd": null,
  "deregisteredDate": null,
  "emergencyPlan": {
    "communityPlanCd": "Y",
    "facilityPlanCd": null,
    "responseActionsCd": null,
    "publicProceduresCd": null,
    "healthcareCd": null,
    "agencyNm": "Union Fire Protection District",
    "agencyPhoneNm": "6365832515",
    "_links": {
      "facility": {
        "href": "https://cdxapps.epa.gov/olem-rmp-pds/api/facilities/1000104081"
      }
    }
  },
  "processes": [
    {
      "programLevelCd": 3,
      "processNaics": [
        {
          "description": "Petroleum and Petroleum Products Merchant Wholesalers (except Bulk Stations and Terminals) ",
          "naicsCd": "42472",
          "_links": {
            "naics": {
              "href": "https://cdxapps.epa.gov/olem-rmp-pds/api/naics-codes/42472"
            }
          }
        }
      ],
      "processChemicals": [
        {
          "flammableMixChems": [],
          "chemicalNm": "Propane",
          "casNu": "74-98-6",
          "flamToxCd": "F",
          "_links": {
            "chemical": {
              "href": "https://cdxapps.epa.gov/olem-rmp-pds/api/chemicals/98"
            }
          }
        }
      ],
      "_links": {
        "facility": {
          "href": "https://cdxapps.epa.gov/olem-rmp-pds/api/facilities/1000104081"
        }
      }
    }
  ],
  "_links": {
    "self": {
      "href": "https://cdxapps.epa.gov/olem-rmp-pds/api/facilities/1000104081"
    },
    "facility": {
      "href": "https://cdxapps.epa.gov/olem-rmp-pds/api/facilities/1000104081"
    }
  }
}